ITEM: TIMESTEP
320
ITEM: NUMBER OF ATOMS
750
ITEM: BOX BOUNDS ff pp pp
0 1
0 0.3
0 0.02
ITEM: ATOMS id type xs ys zs c_ie_atom 
1 1 0 0 0 1.00004 
2 1 0.02 0 0 1.00005 
51 1 0 0.0666667 0 1.00004 
52 1 0.02 0.0666667 0 1.00005 
3 1 0.04 0 0 1.00008 
4 1 0.06 0 0 1.00014 
53 1 0.04 0.0666667 0 1.00008 
54 1 0.06 0.0666667 0 1.00014 
5 1 0.08 0 0 1.00025 
55 1 0.08 0.0666667 0 1.00025 
6 1 0.1 0 0 1.00043 
7 1 0.12 0 0 1.00072 
56 1 0.1 0.0666667 0 1.00043 
57 1 0.12 0.0666667 0 1.00072 
8 1 0.14 0 0 1.00118 
58 1 0.14 0.0666667 0 1.00118 
9 1 0.16 0 0 1.0019 
10 1 0.18 0 0 1.00299 
59 1 0.16 0.0666667 0 1.0019 
60 1 0.18 0.0666667 0 1.00299 
11 1 0.2 0 0 1.00462 
61 1 0.2 0.0666667 0 1.00462 
12 1 0.22 0 0 1.00698 
13 1 0.24 0 0 1.01032 
62 1 0.22 0.0666667 0 1.00698 
63 1 0.24 0.0666667 0 1.01032 
14 1 0.26 0 0 1.01496 
15 1 0.28 0 0 1.02122 
64 1 0.26 0.0666667 0 1.01496 
65 1 0.28 0.0666667 0 1.02122 
16 1 0.3 0 0 1.02947 
66 1 0.3 0.0666667 0 1.02947 
17 1 0.32 0 0 1.04007 
18 1 0.34 0 0 1.05336 
67 1 0.32 0.0666667 0 1.04007 
68 1 0.34 0.0666667 0 1.05336 
19 1 0.36 0 0 1.06959 
69 1 0.36 0.0666667 0 1.06959 
20 1 0.38 0 0 1.08892 
21 1 0.4 0 0 1.11133 
70 1 0.38 0.0666667 0 1.08892 
71 1 0.4 0.0666667 0 1.11133 
22 1 0.42 0 0 1.13666 
72 1 0.42 0.0666667 0 1.13666 
23 1 0.44 0 0 1.16453 
24 1 0.46 0 0 1.19434 
73 1 0.44 0.0666667 0 1.16453 
74 1 0.46 0.0666667 0 1.19434 
25 1 0.48 0 0 1.22651 
75 1 0.48 0.0666667 0 1.22651 
26 2 0.5 0 0 1.40186 
27 2 0.52 0 0 1.66587 
76 2 0.5 0.0666667 0 1.40186 
77 2 0.52 0.0666667 0 1.66587 
28 2 0.54 0 0 1.84478 
29 2 0.56 0 0 1.93791 
78 2 0.54 0.0666667 0 1.84478 
79 2 0.56 0.0666667 0 1.93791 
30 2 0.58 0 0 1.97825 
80 2 0.58 0.0666667 0 1.97825 
31 2 0.6 0 0 1.99323 
32 2 0.62 0 0 1.9981 
81 2 0.6 0.0666667 0 1.99323 
82 2 0.62 0.0666667 0 1.9981 
33 2 0.64 0 0 1.99951 
83 2 0.64 0.0666667 0 1.99951 
34 2 0.66 0 0 1.99989 
35 2 0.68 0 0 1.99997 
84 2 0.66 0.0666667 0 1.99989 
85 2 0.68 0.0666667 0 1.99997 
36 2 0.7 0 0 1.99999 
86 2 0.7 0.0666667 0 1.99999 
37 2 0.72 0 0 2 
38 2 0.74 0 0 2 
87 2 0.72 0.0666667 0 2 
88 2 0.74 0.0666667 0 2 
39 2 0.76 0 0 2 
40 2 0.78 0 0 2 
89 2 0.76 0.0666667 0 2 
90 2 0.78 0.0666667 0 2 
41 2 0.8 0 0 2 
91 2 0.8 0.0666667 0 2 
42 2 0.82 0 0 2 
43 2 0.84 0 0 2 
92 2 0.82 0.0666667 0 2 
93 2 0.84 0.0666667 0 2 
44 2 0.86 0 0 2 
94 2 0.86 0.0666667 0 2 
45 2 0.88 0 0 2 
46 2 0.9 0 0 2 
95 2 0.88 0.0666667 0 2 
96 2 0.9 0.0666667 0 2 
47 2 0.92 0 0 2 
97 2 0.92 0.0666667 0 2 
48 2 0.94 0 0 2 
49 2 0.96 0 0 2 
98 2 0.94 0.0666667 0 2 
99 2 0.96 0.0666667 0 2 
50 2 0.98 0 0 2 
100 2 0.98 0.0666667 0 2 
101 1 0 0.133333 0 1.00004 
102 1 0.02 0.133333 0 1.00005 
151 1 0 0.2 0 1.00004 
152 1 0.02 0.2 0 1.00005 
103 1 0.04 0.133333 0 1.00008 
104 1 0.06 0.133333 0 1.00014 
153 1 0.04 0.2 0 1.00008 
154 1 0.06 0.2 0 1.00014 
105 1 0.08 0.133333 0 1.00025 
155 1 0.08 0.2 0 1.00025 
106 1 0.1 0.133333 0 1.00043 
107 1 0.12 0.133333 0 1.00072 
156 1 0.1 0.2 0 1.00043 
157 1 0.12 0.2 0 1.00072 
108 1 0.14 0.133333 0 1.00118 
158 1 0.14 0.2 0 1.00118 
109 1 0.16 0.133333 0 1.0019 
110 1 0.18 0.133333 0 1.00299 
159 1 0.16 0.2 0 1.0019 
160 1 0.18 0.2 0 1.00299 
111 1 0.2 0.133333 0 1.00462 
161 1 0.2 0.2 0 1.00462 
112 1 0.22 0.133333 0 1.00698 
113 1 0.24 0.133333 0 1.01032 
162 1 0.22 0.2 0 1.00698 
163 1 0.24 0.2 0 1.01032 
114 1 0.26 0.133333 0 1.01496 
115 1 0.28 0.133333 0 1.02122 
164 1 0.26 0.2 0 1.01496 
165 1 0.28 0.2 0 1.02122 
116 1 0.3 0.133333 0 1.02947 
166 1 0.3 0.2 0 1.02947 
117 1 0.32 0.133333 0 1.04007 
118 1 0.34 0.133333 0 1.05336 
167 1 0.32 0.2 0 1.04007 
168 1 0.34 0.2 0 1.05336 
119 1 0.36 0.133333 0 1.06959 
169 1 0.36 0.2 0 1.06959 
120 1 0.38 0.133333 0 1.08892 
121 1 0.4 0.133333 0 1.11133 
170 1 0.38 0.2 0 1.08892 
171 1 0.4 0.2 0 1.11133 
122 1 0.42 0.133333 0 1.13666 
172 1 0.42 0.2 0 1.13666 
123 1 0.44 0.133333 0 1.16453 
124 1 0.46 0.133333 0 1.19434 
173 1 0.44 0.2 0 1.16453 
174 1 0.46 0.2 0 1.19434 
125 1 0.48 0.133333 0 1.22651 
175 1 0.48 0.2 0 1.22651 
126 2 0.5 0.133333 0 1.40186 
127 2 0.52 0.133333 0 1.66587 
176 2 0.5 0.2 0 1.40186 
177 2 0.52 0.2 0 1.66587 
128 2 0.54 0.133333 0 1.84478 
129 2 0.56 0.133333 0 1.93791 
178 2 0.54 0.2 0 1.84478 
179 2 0.56 0.2 0 1.93791 
130 2 0.58 0.133333 0 1.97825 
180 2 0.58 0.2 0 1.97825 
131 2 0.6 0.133333 0 1.99323 
132 2 0.62 0.133333 0 1.9981 
181 2 0.6 0.2 0 1.99323 
182 2 0.62 0.2 0 1.9981 
133 2 0.64 0.133333 0 1.99951 
183 2 0.64 0.2 0 1.99951 
134 2 0.66 0.133333 0 1.99989 
135 2 0.68 0.133333 0 1.99997 
184 2 0.66 0.2 0 1.99989 
185 2 0.68 0.2 0 1.99997 
136 2 0.7 0.133333 0 1.99999 
186 2 0.7 0.2 0 1.99999 
137 2 0.72 0.133333 0 2 
138 2 0.74 0.133333 0 2 
187 2 0.72 0.2 0 2 
188 2 0.74 0.2 0 2 
139 2 0.76 0.133333 0 2 
140 2 0.78 0.133333 0 2 
189 2 0.76 0.2 0 2 
190 2 0.78 0.2 0 2 
141 2 0.8 0.133333 0 2 
191 2 0.8 0.2 0 2 
142 2 0.82 0.133333 0 2 
143 2 0.84 0.133333 0 2 
192 2 0.82 0.2 0 2 
193 2 0.84 0.2 0 2 
144 2 0.86 0.133333 0 2 
194 2 0.86 0.2 0 2 
145 2 0.88 0.133333 0 2 
146 2 0.9 0.133333 0 2 
195 2 0.88 0.2 0 2 
196 2 0.9 0.2 0 2 
147 2 0.92 0.133333 0 2 
197 2 0.92 0.2 0 2 
148 2 0.94 0.133333 0 2 
149 2 0.96 0.133333 0 2 
198 2 0.94 0.2 0 2 
199 2 0.96 0.2 0 2 
150 2 0.98 0.133333 0 2 
200 2 0.98 0.2 0 2 
201 1 0 0.266667 0 1.00004 
202 1 0.02 0.266667 0 1.00005 
203 1 0.04 0.266667 0 1.00008 
204 1 0.06 0.266667 0 1.00014 
205 1 0.08 0.266667 0 1.00025 
206 1 0.1 0.266667 0 1.00043 
207 1 0.12 0.266667 0 1.00072 
208 1 0.14 0.266667 0 1.00118 
209 1 0.16 0.266667 0 1.0019 
210 1 0.18 0.266667 0 1.00299 
211 1 0.2 0.266667 0 1.00462 
212 1 0.22 0.266667 0 1.00698 
213 1 0.24 0.266667 0 1.01032 
214 1 0.26 0.266667 0 1.01496 
215 1 0.28 0.266667 0 1.02122 
216 1 0.3 0.266667 0 1.02947 
217 1 0.32 0.266667 0 1.04007 
218 1 0.34 0.266667 0 1.05336 
219 1 0.36 0.266667 0 1.06959 
220 1 0.38 0.266667 0 1.08892 
221 1 0.4 0.266667 0 1.11133 
222 1 0.42 0.266667 0 1.13666 
223 1 0.44 0.266667 0 1.16453 
224 1 0.46 0.266667 0 1.19434 
225 1 0.48 0.266667 0 1.22651 
226 2 0.5 0.266667 0 1.40186 
227 2 0.52 0.266667 0 1.66587 
228 2 0.54 0.266667 0 1.84478 
229 2 0.56 0.266667 0 1.93791 
230 2 0.58 0.266667 0 1.97825 
231 2 0.6 0.266667 0 1.99323 
232 2 0.62 0.266667 0 1.9981 
233 2 0.64 0.266667 0 1.99951 
234 2 0.66 0.266667 0 1.99989 
235 2 0.68 0.266667 0 1.99997 
236 2 0.7 0.266667 0 1.99999 
237 2 0.72 0.266667 0 2 
238 2 0.74 0.266667 0 2 
239 2 0.76 0.266667 0 2 
240 2 0.78 0.266667 0 2 
241 2 0.8 0.266667 0 2 
242 2 0.82 0.266667 0 2 
243 2 0.84 0.266667 0 2 
244 2 0.86 0.266667 0 2 
245 2 0.88 0.266667 0 2 
246 2 0.9 0.266667 0 2 
247 2 0.92 0.266667 0 2 
248 2 0.94 0.266667 0 2 
249 2 0.96 0.266667 0 2 
250 2 0.98 0.266667 0 2 
251 1 0 0.333333 0 1.00004 
252 1 0.02 0.333333 0 1.00005 
301 1 0 0.4 0 1.00004 
302 1 0.02 0.4 0 1.00005 
253 1 0.04 0.333333 0 1.00008 
254 1 0.06 0.333333 0 1.00014 
303 1 0.04 0.4 0 1.00008 
304 1 0.06 0.4 0 1.00014 
255 1 0.08 0.333333 0 1.00025 
305 1 0.08 0.4 0 1.00025 
256 1 0.1 0.333333 0 1.00043 
257 1 0.12 0.333333 0 1.00072 
306 1 0.1 0.4 0 1.00043 
307 1 0.12 0.4 0 1.00072 
258 1 0.14 0.333333 0 1.00118 
308 1 0.14 0.4 0 1.00118 
259 1 0.16 0.333333 0 1.0019 
260 1 0.18 0.333333 0 1.00299 
309 1 0.16 0.4 0 1.0019 
310 1 0.18 0.4 0 1.00299 
261 1 0.2 0.333333 0 1.00462 
311 1 0.2 0.4 0 1.00462 
262 1 0.22 0.333333 0 1.00698 
263 1 0.24 0.333333 0 1.01032 
312 1 0.22 0.4 0 1.00698 
313 1 0.24 0.4 0 1.01032 
264 1 0.26 0.333333 0 1.01496 
265 1 0.28 0.333333 0 1.02122 
314 1 0.26 0.4 0 1.01496 
315 1 0.28 0.4 0 1.02122 
266 1 0.3 0.333333 0 1.02947 
316 1 0.3 0.4 0 1.02947 
267 1 0.32 0.333333 0 1.04007 
268 1 0.34 0.333333 0 1.05336 
317 1 0.32 0.4 0 1.04007 
318 1 0.34 0.4 0 1.05336 
269 1 0.36 0.333333 0 1.06959 
319 1 0.36 0.4 0 1.06959 
270 1 0.38 0.333333 0 1.08892 
271 1 0.4 0.333333 0 1.11133 
320 1 0.38 0.4 0 1.08892 
321 1 0.4 0.4 0 1.11133 
272 1 0.42 0.333333 0 1.13666 
322 1 0.42 0.4 0 1.13666 
273 1 0.44 0.333333 0 1.16453 
274 1 0.46 0.333333 0 1.19434 
323 1 0.44 0.4 0 1.16453 
324 1 0.46 0.4 0 1.19434 
275 1 0.48 0.333333 0 1.22651 
325 1 0.48 0.4 0 1.22651 
276 2 0.5 0.333333 0 1.40186 
277 2 0.52 0.333333 0 1.66587 
326 2 0.5 0.4 0 1.40186 
327 2 0.52 0.4 0 1.66587 
278 2 0.54 0.333333 0 1.84478 
279 2 0.56 0.333333 0 1.93791 
328 2 0.54 0.4 0 1.84478 
329 2 0.56 0.4 0 1.93791 
280 2 0.58 0.333333 0 1.97825 
330 2 0.58 0.4 0 1.97825 
281 2 0.6 0.333333 0 1.99323 
282 2 0.62 0.333333 0 1.9981 
331 2 0.6 0.4 0 1.99323 
332 2 0.62 0.4 0 1.9981 
283 2 0.64 0.333333 0 1.99951 
333 2 0.64 0.4 0 1.99951 
284 2 0.66 0.333333 0 1.99989 
285 2 0.68 0.333333 0 1.99997 
334 2 0.66 0.4 0 1.99989 
335 2 0.68 0.4 0 1.99997 
286 2 0.7 0.333333 0 1.99999 
336 2 0.7 0.4 0 1.99999 
287 2 0.72 0.333333 0 2 
288 2 0.74 0.333333 0 2 
337 2 0.72 0.4 0 2 
338 2 0.74 0.4 0 2 
289 2 0.76 0.333333 0 2 
290 2 0.78 0.333333 0 2 
339 2 0.76 0.4 0 2 
340 2 0.78 0.4 0 2 
291 2 0.8 0.333333 0 2 
341 2 0.8 0.4 0 2 
292 2 0.82 0.333333 0 2 
293 2 0.84 0.333333 0 2 
342 2 0.82 0.4 0 2 
343 2 0.84 0.4 0 2 
294 2 0.86 0.333333 0 2 
344 2 0.86 0.4 0 2 
295 2 0.88 0.333333 0 2 
296 2 0.9 0.333333 0 2 
345 2 0.88 0.4 0 2 
346 2 0.9 0.4 0 2 
297 2 0.92 0.333333 0 2 
347 2 0.92 0.4 0 2 
298 2 0.94 0.333333 0 2 
299 2 0.96 0.333333 0 2 
348 2 0.94 0.4 0 2 
349 2 0.96 0.4 0 2 
300 2 0.98 0.333333 0 2 
350 2 0.98 0.4 0 2 
351 1 0 0.466667 0 1.00004 
352 1 0.02 0.466667 0 1.00005 
401 1 0 0.533333 0 1.00004 
402 1 0.02 0.533333 0 1.00005 
353 1 0.04 0.466667 0 1.00008 
354 1 0.06 0.466667 0 1.00014 
403 1 0.04 0.533333 0 1.00008 
404 1 0.06 0.533333 0 1.00014 
355 1 0.08 0.466667 0 1.00025 
405 1 0.08 0.533333 0 1.00025 
356 1 0.1 0.466667 0 1.00043 
357 1 0.12 0.466667 0 1.00072 
406 1 0.1 0.533333 0 1.00043 
407 1 0.12 0.533333 0 1.00072 
358 1 0.14 0.466667 0 1.00118 
408 1 0.14 0.533333 0 1.00118 
359 1 0.16 0.466667 0 1.0019 
360 1 0.18 0.466667 0 1.00299 
409 1 0.16 0.533333 0 1.0019 
410 1 0.18 0.533333 0 1.00299 
361 1 0.2 0.466667 0 1.00462 
411 1 0.2 0.533333 0 1.00462 
362 1 0.22 0.466667 0 1.00698 
363 1 0.24 0.466667 0 1.01032 
412 1 0.22 0.533333 0 1.00698 
413 1 0.24 0.533333 0 1.01032 
364 1 0.26 0.466667 0 1.01496 
365 1 0.28 0.466667 0 1.02122 
414 1 0.26 0.533333 0 1.01496 
415 1 0.28 0.533333 0 1.02122 
366 1 0.3 0.466667 0 1.02947 
416 1 0.3 0.533333 0 1.02947 
367 1 0.32 0.466667 0 1.04007 
368 1 0.34 0.466667 0 1.05336 
417 1 0.32 0.533333 0 1.04007 
418 1 0.34 0.533333 0 1.05336 
369 1 0.36 0.466667 0 1.06959 
419 1 0.36 0.533333 0 1.06959 
370 1 0.38 0.466667 0 1.08892 
371 1 0.4 0.466667 0 1.11133 
420 1 0.38 0.533333 0 1.08892 
421 1 0.4 0.533333 0 1.11133 
372 1 0.42 0.466667 0 1.13666 
422 1 0.42 0.533333 0 1.13666 
373 1 0.44 0.466667 0 1.16453 
374 1 0.46 0.466667 0 1.19434 
423 1 0.44 0.533333 0 1.16453 
424 1 0.46 0.533333 0 1.19434 
375 1 0.48 0.466667 0 1.22651 
425 1 0.48 0.533333 0 1.22651 
376 2 0.5 0.466667 0 1.40186 
377 2 0.52 0.466667 0 1.66587 
426 2 0.5 0.533333 0 1.40186 
427 2 0.52 0.533333 0 1.66587 
378 2 0.54 0.466667 0 1.84478 
379 2 0.56 0.466667 0 1.93791 
428 2 0.54 0.533333 0 1.84478 
429 2 0.56 0.533333 0 1.93791 
380 2 0.58 0.466667 0 1.97825 
430 2 0.58 0.533333 0 1.97825 
381 2 0.6 0.466667 0 1.99323 
382 2 0.62 0.466667 0 1.9981 
431 2 0.6 0.533333 0 1.99323 
432 2 0.62 0.533333 0 1.9981 
383 2 0.64 0.466667 0 1.99951 
433 2 0.64 0.533333 0 1.99951 
384 2 0.66 0.466667 0 1.99989 
385 2 0.68 0.466667 0 1.99997 
434 2 0.66 0.533333 0 1.99989 
435 2 0.68 0.533333 0 1.99997 
386 2 0.7 0.466667 0 1.99999 
436 2 0.7 0.533333 0 1.99999 
387 2 0.72 0.466667 0 2 
388 2 0.74 0.466667 0 2 
437 2 0.72 0.533333 0 2 
438 2 0.74 0.533333 0 2 
389 2 0.76 0.466667 0 2 
390 2 0.78 0.466667 0 2 
439 2 0.76 0.533333 0 2 
440 2 0.78 0.533333 0 2 
391 2 0.8 0.466667 0 2 
441 2 0.8 0.533333 0 2 
392 2 0.82 0.466667 0 2 
393 2 0.84 0.466667 0 2 
442 2 0.82 0.533333 0 2 
443 2 0.84 0.533333 0 2 
394 2 0.86 0.466667 0 2 
444 2 0.86 0.533333 0 2 
395 2 0.88 0.466667 0 2 
396 2 0.9 0.466667 0 2 
445 2 0.88 0.533333 0 2 
446 2 0.9 0.533333 0 2 
397 2 0.92 0.466667 0 2 
447 2 0.92 0.533333 0 2 
398 2 0.94 0.466667 0 2 
399 2 0.96 0.466667 0 2 
448 2 0.94 0.533333 0 2 
449 2 0.96 0.533333 0 2 
400 2 0.98 0.466667 0 2 
450 2 0.98 0.533333 0 2 
451 1 0 0.6 0 1.00004 
452 1 0.02 0.6 0 1.00005 
453 1 0.04 0.6 0 1.00008 
454 1 0.06 0.6 0 1.00014 
455 1 0.08 0.6 0 1.00025 
456 1 0.1 0.6 0 1.00043 
457 1 0.12 0.6 0 1.00072 
458 1 0.14 0.6 0 1.00118 
459 1 0.16 0.6 0 1.0019 
460 1 0.18 0.6 0 1.00299 
461 1 0.2 0.6 0 1.00462 
462 1 0.22 0.6 0 1.00698 
463 1 0.24 0.6 0 1.01032 
464 1 0.26 0.6 0 1.01496 
465 1 0.28 0.6 0 1.02122 
466 1 0.3 0.6 0 1.02947 
467 1 0.32 0.6 0 1.04007 
468 1 0.34 0.6 0 1.05336 
469 1 0.36 0.6 0 1.06959 
470 1 0.38 0.6 0 1.08892 
471 1 0.4 0.6 0 1.11133 
472 1 0.42 0.6 0 1.13666 
473 1 0.44 0.6 0 1.16453 
474 1 0.46 0.6 0 1.19434 
475 1 0.48 0.6 0 1.22651 
476 2 0.5 0.6 0 1.40186 
477 2 0.52 0.6 0 1.66587 
478 2 0.54 0.6 0 1.84478 
479 2 0.56 0.6 0 1.93791 
480 2 0.58 0.6 0 1.97825 
481 2 0.6 0.6 0 1.99323 
482 2 0.62 0.6 0 1.9981 
483 2 0.64 0.6 0 1.99951 
484 2 0.66 0.6 0 1.99989 
485 2 0.68 0.6 0 1.99997 
486 2 0.7 0.6 0 1.99999 
487 2 0.72 0.6 0 2 
488 2 0.74 0.6 0 2 
489 2 0.76 0.6 0 2 
490 2 0.78 0.6 0 2 
491 2 0.8 0.6 0 2 
492 2 0.82 0.6 0 2 
493 2 0.84 0.6 0 2 
494 2 0.86 0.6 0 2 
495 2 0.88 0.6 0 2 
496 2 0.9 0.6 0 2 
497 2 0.92 0.6 0 2 
498 2 0.94 0.6 0 2 
499 2 0.96 0.6 0 2 
500 2 0.98 0.6 0 2 
501 1 0 0.666667 0 1.00004 
502 1 0.02 0.666667 0 1.00005 
551 1 0 0.733333 0 1.00004 
552 1 0.02 0.733333 0 1.00005 
503 1 0.04 0.666667 0 1.00008 
504 1 0.06 0.666667 0 1.00014 
553 1 0.04 0.733333 0 1.00008 
554 1 0.06 0.733333 0 1.00014 
505 1 0.08 0.666667 0 1.00025 
555 1 0.08 0.733333 0 1.00025 
506 1 0.1 0.666667 0 1.00043 
507 1 0.12 0.666667 0 1.00072 
556 1 0.1 0.733333 0 1.00043 
557 1 0.12 0.733333 0 1.00072 
508 1 0.14 0.666667 0 1.00118 
558 1 0.14 0.733333 0 1.00118 
509 1 0.16 0.666667 0 1.0019 
510 1 0.18 0.666667 0 1.00299 
559 1 0.16 0.733333 0 1.0019 
560 1 0.18 0.733333 0 1.00299 
511 1 0.2 0.666667 0 1.00462 
561 1 0.2 0.733333 0 1.00462 
512 1 0.22 0.666667 0 1.00698 
513 1 0.24 0.666667 0 1.01032 
562 1 0.22 0.733333 0 1.00698 
563 1 0.24 0.733333 0 1.01032 
514 1 0.26 0.666667 0 1.01496 
515 1 0.28 0.666667 0 1.02122 
564 1 0.26 0.733333 0 1.01496 
565 1 0.28 0.733333 0 1.02122 
516 1 0.3 0.666667 0 1.02947 
566 1 0.3 0.733333 0 1.02947 
517 1 0.32 0.666667 0 1.04007 
518 1 0.34 0.666667 0 1.05336 
567 1 0.32 0.733333 0 1.04007 
568 1 0.34 0.733333 0 1.05336 
519 1 0.36 0.666667 0 1.06959 
569 1 0.36 0.733333 0 1.06959 
520 1 0.38 0.666667 0 1.08892 
521 1 0.4 0.666667 0 1.11133 
570 1 0.38 0.733333 0 1.08892 
571 1 0.4 0.733333 0 1.11133 
522 1 0.42 0.666667 0 1.13666 
572 1 0.42 0.733333 0 1.13666 
523 1 0.44 0.666667 0 1.16453 
524 1 0.46 0.666667 0 1.19434 
573 1 0.44 0.733333 0 1.16453 
574 1 0.46 0.733333 0 1.19434 
525 1 0.48 0.666667 0 1.22651 
575 1 0.48 0.733333 0 1.22651 
526 2 0.5 0.666667 0 1.40186 
527 2 0.52 0.666667 0 1.66587 
576 2 0.5 0.733333 0 1.40186 
577 2 0.52 0.733333 0 1.66587 
528 2 0.54 0.666667 0 1.84478 
529 2 0.56 0.666667 0 1.93791 
578 2 0.54 0.733333 0 1.84478 
579 2 0.56 0.733333 0 1.93791 
530 2 0.58 0.666667 0 1.97825 
580 2 0.58 0.733333 0 1.97825 
531 2 0.6 0.666667 0 1.99323 
532 2 0.62 0.666667 0 1.9981 
581 2 0.6 0.733333 0 1.99323 
582 2 0.62 0.733333 0 1.9981 
533 2 0.64 0.666667 0 1.99951 
583 2 0.64 0.733333 0 1.99951 
534 2 0.66 0.666667 0 1.99989 
535 2 0.68 0.666667 0 1.99997 
584 2 0.66 0.733333 0 1.99989 
585 2 0.68 0.733333 0 1.99997 
536 2 0.7 0.666667 0 1.99999 
586 2 0.7 0.733333 0 1.99999 
537 2 0.72 0.666667 0 2 
538 2 0.74 0.666667 0 2 
587 2 0.72 0.733333 0 2 
588 2 0.74 0.733333 0 2 
539 2 0.76 0.666667 0 2 
540 2 0.78 0.666667 0 2 
589 2 0.76 0.733333 0 2 
590 2 0.78 0.733333 0 2 
541 2 0.8 0.666667 0 2 
591 2 0.8 0.733333 0 2 
542 2 0.82 0.666667 0 2 
543 2 0.84 0.666667 0 2 
592 2 0.82 0.733333 0 2 
593 2 0.84 0.733333 0 2 
544 2 0.86 0.666667 0 2 
594 2 0.86 0.733333 0 2 
545 2 0.88 0.666667 0 2 
546 2 0.9 0.666667 0 2 
595 2 0.88 0.733333 0 2 
596 2 0.9 0.733333 0 2 
547 2 0.92 0.666667 0 2 
597 2 0.92 0.733333 0 2 
548 2 0.94 0.666667 0 2 
549 2 0.96 0.666667 0 2 
598 2 0.94 0.733333 0 2 
599 2 0.96 0.733333 0 2 
550 2 0.98 0.666667 0 2 
600 2 0.98 0.733333 0 2 
601 1 0 0.8 0 1.00004 
602 1 0.02 0.8 0 1.00005 
651 1 0 0.866667 0 1.00004 
652 1 0.02 0.866667 0 1.00005 
603 1 0.04 0.8 0 1.00008 
604 1 0.06 0.8 0 1.00014 
653 1 0.04 0.866667 0 1.00008 
654 1 0.06 0.866667 0 1.00014 
605 1 0.08 0.8 0 1.00025 
655 1 0.08 0.866667 0 1.00025 
606 1 0.1 0.8 0 1.00043 
607 1 0.12 0.8 0 1.00072 
656 1 0.1 0.866667 0 1.00043 
657 1 0.12 0.866667 0 1.00072 
608 1 0.14 0.8 0 1.00118 
658 1 0.14 0.866667 0 1.00118 
609 1 0.16 0.8 0 1.0019 
610 1 0.18 0.8 0 1.00299 
659 1 0.16 0.866667 0 1.0019 
660 1 0.18 0.866667 0 1.00299 
611 1 0.2 0.8 0 1.00462 
661 1 0.2 0.866667 0 1.00462 
612 1 0.22 0.8 0 1.00698 
613 1 0.24 0.8 0 1.01032 
662 1 0.22 0.866667 0 1.00698 
663 1 0.24 0.866667 0 1.01032 
614 1 0.26 0.8 0 1.01496 
615 1 0.28 0.8 0 1.02122 
664 1 0.26 0.866667 0 1.01496 
665 1 0.28 0.866667 0 1.02122 
616 1 0.3 0.8 0 1.02947 
666 1 0.3 0.866667 0 1.02947 
617 1 0.32 0.8 0 1.04007 
618 1 0.34 0.8 0 1.05336 
667 1 0.32 0.866667 0 1.04007 
668 1 0.34 0.866667 0 1.05336 
619 1 0.36 0.8 0 1.06959 
669 1 0.36 0.866667 0 1.06959 
620 1 0.38 0.8 0 1.08892 
621 1 0.4 0.8 0 1.11133 
670 1 0.38 0.866667 0 1.08892 
671 1 0.4 0.866667 0 1.11133 
622 1 0.42 0.8 0 1.13666 
672 1 0.42 0.866667 0 1.13666 
623 1 0.44 0.8 0 1.16453 
624 1 0.46 0.8 0 1.19434 
673 1 0.44 0.866667 0 1.16453 
674 1 0.46 0.866667 0 1.19434 
625 1 0.48 0.8 0 1.22651 
675 1 0.48 0.866667 0 1.22651 
626 2 0.5 0.8 0 1.40186 
627 2 0.52 0.8 0 1.66587 
676 2 0.5 0.866667 0 1.40186 
677 2 0.52 0.866667 0 1.66587 
628 2 0.54 0.8 0 1.84478 
629 2 0.56 0.8 0 1.93791 
678 2 0.54 0.866667 0 1.84478 
679 2 0.56 0.866667 0 1.93791 
630 2 0.58 0.8 0 1.97825 
680 2 0.58 0.866667 0 1.97825 
631 2 0.6 0.8 0 1.99323 
632 2 0.62 0.8 0 1.9981 
681 2 0.6 0.866667 0 1.99323 
682 2 0.62 0.866667 0 1.9981 
633 2 0.64 0.8 0 1.99951 
683 2 0.64 0.866667 0 1.99951 
634 2 0.66 0.8 0 1.99989 
635 2 0.68 0.8 0 1.99997 
684 2 0.66 0.866667 0 1.99989 
685 2 0.68 0.866667 0 1.99997 
636 2 0.7 0.8 0 1.99999 
686 2 0.7 0.866667 0 1.99999 
637 2 0.72 0.8 0 2 
638 2 0.74 0.8 0 2 
687 2 0.72 0.866667 0 2 
688 2 0.74 0.866667 0 2 
639 2 0.76 0.8 0 2 
640 2 0.78 0.8 0 2 
689 2 0.76 0.866667 0 2 
690 2 0.78 0.866667 0 2 
641 2 0.8 0.8 0 2 
691 2 0.8 0.866667 0 2 
642 2 0.82 0.8 0 2 
643 2 0.84 0.8 0 2 
692 2 0.82 0.866667 0 2 
693 2 0.84 0.866667 0 2 
644 2 0.86 0.8 0 2 
694 2 0.86 0.866667 0 2 
645 2 0.88 0.8 0 2 
646 2 0.9 0.8 0 2 
695 2 0.88 0.866667 0 2 
696 2 0.9 0.866667 0 2 
647 2 0.92 0.8 0 2 
697 2 0.92 0.866667 0 2 
648 2 0.94 0.8 0 2 
649 2 0.96 0.8 0 2 
698 2 0.94 0.866667 0 2 
699 2 0.96 0.866667 0 2 
650 2 0.98 0.8 0 2 
700 2 0.98 0.866667 0 2 
701 1 0 0.933333 0 1.00004 
702 1 0.02 0.933333 0 1.00005 
703 1 0.04 0.933333 0 1.00008 
704 1 0.06 0.933333 0 1.00014 
705 1 0.08 0.933333 0 1.00025 
706 1 0.1 0.933333 0 1.00043 
707 1 0.12 0.933333 0 1.00072 
708 1 0.14 0.933333 0 1.00118 
709 1 0.16 0.933333 0 1.0019 
710 1 0.18 0.933333 0 1.00299 
711 1 0.2 0.933333 0 1.00462 
712 1 0.22 0.933333 0 1.00698 
713 1 0.24 0.933333 0 1.01032 
714 1 0.26 0.933333 0 1.01496 
715 1 0.28 0.933333 0 1.02122 
716 1 0.3 0.933333 0 1.02947 
717 1 0.32 0.933333 0 1.04007 
718 1 0.34 0.933333 0 1.05336 
719 1 0.36 0.933333 0 1.06959 
720 1 0.38 0.933333 0 1.08892 
721 1 0.4 0.933333 0 1.11133 
722 1 0.42 0.933333 0 1.13666 
723 1 0.44 0.933333 0 1.16453 
724 1 0.46 0.933333 0 1.19434 
725 1 0.48 0.933333 0 1.22651 
726 2 0.5 0.933333 0 1.40186 
727 2 0.52 0.933333 0 1.66587 
728 2 0.54 0.933333 0 1.84478 
729 2 0.56 0.933333 0 1.93791 
730 2 0.58 0.933333 0 1.97825 
731 2 0.6 0.933333 0 1.99323 
732 2 0.62 0.933333 0 1.9981 
733 2 0.64 0.933333 0 1.99951 
734 2 0.66 0.933333 0 1.99989 
735 2 0.68 0.933333 0 1.99997 
736 2 0.7 0.933333 0 1.99999 
737 2 0.72 0.933333 0 2 
738 2 0.74 0.933333 0 2 
739 2 0.76 0.933333 0 2 
740 2 0.78 0.933333 0 2 
741 2 0.8 0.933333 0 2 
742 2 0.82 0.933333 0 2 
743 2 0.84 0.933333 0 2 
744 2 0.86 0.933333 0 2 
745 2 0.88 0.933333 0 2 
746 2 0.9 0.933333 0 2 
747 2 0.92 0.933333 0 2 
748 2 0.94 0.933333 0 2 
749 2 0.96 0.933333 0 2 
750 2 0.98 0.933333 0 2 
